VARIABLES= "X", "Y", "Z", "CP"
ZONE F=POINT, I= 129 J=  21
  0.181640E+02  0.221746E+00  0.132401E+01  0.122608E+00
  0.181294E+02  0.226330E+00  0.132652E+01  0.175025E+00
  0.180878E+02  0.232015E+00  0.132953E+01  0.218213E+00
  0.180383E+02  0.238475E+00  0.133295E+01  0.259449E+00
  0.179803E+02  0.244823E+00  0.133735E+01  0.289079E+00
  0.179133E+02  0.249919E+00  0.134236E+01  0.304349E+00
  0.178369E+02  0.253442E+00  0.134749E+01  0.309099E+00
  0.177510E+02  0.255444E+00  0.135274E+01  0.308435E+00
  0.176553E+02  0.255350E+00  0.135801E+01  0.302932E+00
  0.175501E+02  0.252590E+00  0.136320E+01  0.291240E+00
  0.174353E+02  0.246921E+00  0.136827E+01  0.273327E+00
  0.173114E+02  0.238286E+00  0.137323E+01  0.250052E+00
  0.171788E+02  0.226716E+00  0.137808E+01  0.222030E+00
  0.170380E+02  0.212301E+00  0.138284E+01  0.189296E+00
  0.168897E+02  0.195283E+00  0.138751E+01  0.152208E+00
  0.167345E+02  0.176087E+00  0.139214E+01  0.111584E+00
  0.165733E+02  0.155145E+00  0.139673E+01  0.683170E-01
  0.164068E+02  0.132909E+00  0.140128E+01  0.222647E-01
  0.162361E+02  0.109660E+00  0.140577E+01 -0.267825E-01
  0.160620E+02  0.859269E-01  0.141012E+01 -0.744134E-01
  0.158852E+02  0.619077E-01  0.141378E+01 -0.111105E+00
  0.157069E+02  0.379233E-01  0.141705E+01 -0.138091E+00
  0.155279E+02  0.142293E-01  0.141995E+01 -0.163518E+00
  0.153491E+02 -0.903511E-02  0.142248E+01 -0.188794E+00
  0.151714E+02 -0.316151E-01  0.142465E+01 -0.213462E+00
  0.149956E+02 -0.533451E-01  0.142649E+01 -0.237253E+00
  0.148225E+02 -0.740582E-01  0.142802E+01 -0.260623E+00
  0.146528E+02 -0.936031E-01  0.142925E+01 -0.283964E+00
  0.144872E+02 -0.111783E+00  0.143021E+01 -0.306655E+00
  0.143262E+02 -0.128377E+00  0.143091E+01 -0.328942E+00
  0.141703E+02 -0.143384E+00  0.143138E+01 -0.352912E+00
  0.140200E+02 -0.156629E+00  0.143164E+01 -0.381503E+00
  0.138755E+02 -0.168060E+00  0.143166E+01 -0.415461E+00
  0.137364E+02 -0.177784E+00  0.142999E+01 -0.417839E+00
  0.136035E+02 -0.185790E+00  0.142816E+01 -0.393765E+00
  0.134770E+02 -0.191974E+00  0.142622E+01 -0.380277E+00
  0.133568E+02 -0.196489E+00  0.142420E+01 -0.371226E+00
  0.132430E+02 -0.199404E+00  0.142213E+01 -0.362812E+00
  0.131354E+02 -0.200823E+00  0.142005E+01 -0.353240E+00
  0.130339E+02 -0.200879E+00  0.141797E+01 -0.342770E+00
  0.129383E+02 -0.199725E+00  0.141592E+01 -0.332197E+00
  0.128484E+02 -0.197480E+00  0.141392E+01 -0.322478E+00
  0.127638E+02 -0.194243E+00  0.141197E+01 -0.316017E+00
  0.126841E+02 -0.190124E+00  0.140989E+01 -0.299903E+00
  0.126080E+02 -0.185130E+00  0.140774E+01 -0.269257E+00
  0.125352E+02 -0.179266E+00  0.140566E+01 -0.238219E+00
  0.124658E+02 -0.172574E+00  0.140365E+01 -0.210155E+00
  0.123998E+02 -0.165064E+00  0.140173E+01 -0.182565E+00
  0.123374E+02 -0.156725E+00  0.139989E+01 -0.152269E+00
  0.122785E+02 -0.147557E+00  0.139816E+01 -0.119445E+00
  0.122231E+02 -0.137666E+00  0.139654E+01 -0.854342E-01
  0.121714E+02 -0.127002E+00  0.139504E+01 -0.559340E-01
  0.121234E+02 -0.115626E+00  0.139367E+01 -0.250753E-01
  0.120790E+02 -0.103414E+00  0.139242E+01  0.163452E-01
  0.120384E+02 -0.902129E-01  0.139132E+01  0.699107E-01
  0.120016E+02 -0.758745E-01  0.139037E+01  0.142858E+00
  0.119686E+02 -0.603359E-01  0.138956E+01  0.237186E+00
  0.119393E+02 -0.437049E-01  0.138890E+01  0.350688E+00
  0.119139E+02 -0.261093E-01  0.138839E+01  0.481410E+00
  0.118924E+02 -0.767775E-02  0.138802E+01  0.627430E+00
  0.118747E+02  0.114617E-01  0.138779E+01  0.783308E+00
  0.118609E+02  0.311801E-01  0.138769E+01  0.936025E+00
  0.118509E+02  0.513487E-01  0.138772E+01  0.106186E+01
  0.118449E+02  0.718379E-01  0.138787E+01  0.113361E+01
  0.118427E+02  0.925563E-01  0.138813E+01  0.113283E+01
  0.118444E+02  0.113291E+00  0.138848E+01  0.105705E+01
  0.118500E+02  0.133944E+00  0.138891E+01  0.920810E+00
  0.118594E+02  0.154370E+00  0.138941E+01  0.748205E+00
  0.118727E+02  0.174429E+00  0.138999E+01  0.563564E+00
  0.118899E+02  0.193978E+00  0.139069E+01  0.385043E+00
  0.119110E+02  0.212876E+00  0.139151E+01  0.222318E+00
  0.119359E+02  0.230979E+00  0.139250E+01  0.781677E-01
  0.119648E+02  0.248145E+00  0.139365E+01 -0.477608E-01
  0.119975E+02  0.264228E+00  0.139495E+01 -0.154032E+00
  0.120339E+02  0.279079E+00  0.139637E+01 -0.235798E+00
  0.120742E+02  0.292815E+00  0.139789E+01 -0.293430E+00
  0.121182E+02  0.305593E+00  0.139946E+01 -0.335676E+00
  0.121659E+02  0.317519E+00  0.140104E+01 -0.360539E+00
  0.122171E+02  0.328760E+00  0.140256E+01 -0.379439E+00
  0.122718E+02  0.339353E+00  0.140400E+01 -0.403252E+00
  0.123300E+02  0.349299E+00  0.140529E+01 -0.421569E+00
  0.123915E+02  0.358607E+00  0.140640E+01 -0.430292E+00
  0.124564E+02  0.367333E+00  0.140728E+01 -0.427369E+00
  0.125246E+02  0.375546E+00  0.140789E+01 -0.409167E+00
  0.125959E+02  0.383316E+00  0.140823E+01 -0.365205E+00
  0.126705E+02  0.390715E+00  0.140828E+01 -0.296774E+00
  0.127488E+02  0.397849E+00  0.140846E+01 -0.297372E+00
  0.128330E+02  0.404899E+00  0.141017E+01 -0.345176E+00
  0.129227E+02  0.411824E+00  0.141198E+01 -0.358509E+00
  0.130181E+02  0.418718E+00  0.141390E+01 -0.366352E+00
  0.131194E+02  0.425613E+00  0.141592E+01 -0.372284E+00
  0.132270E+02  0.432412E+00  0.141802E+01 -0.375409E+00
  0.133408E+02  0.439159E+00  0.142017E+01 -0.377377E+00
  0.134611E+02  0.445863E+00  0.142232E+01 -0.378738E+00
  0.135877E+02  0.452302E+00  0.142441E+01 -0.373604E+00
  0.137208E+02  0.458480E+00  0.142639E+01 -0.348949E+00
  0.138602E+02  0.464221E+00  0.142819E+01 -0.342321E+00
  0.140059E+02  0.469301E+00  0.143048E+01 -0.378796E+00
  0.141576E+02  0.473531E+00  0.143272E+01 -0.423693E+00
  0.143148E+02  0.476674E+00  0.143475E+01 -0.463246E+00
  0.144772E+02  0.478517E+00  0.143652E+01 -0.496386E+00
  0.146440E+02  0.478756E+00  0.143798E+01 -0.522173E+00
  0.148148E+02  0.477356E+00  0.143907E+01 -0.539268E+00
  0.149890E+02  0.474077E+00  0.143974E+01 -0.544538E+00
  0.151658E+02  0.469001E+00  0.143992E+01 -0.535621E+00
  0.153444E+02  0.462096E+00  0.143951E+01 -0.511616E+00
  0.155239E+02  0.453574E+00  0.143837E+01 -0.472629E+00
  0.157036E+02  0.443621E+00  0.143638E+01 -0.418603E+00
  0.158824E+02  0.432586E+00  0.143346E+01 -0.347218E+00
  0.160594E+02  0.420812E+00  0.142961E+01 -0.302636E+00
  0.162344E+02  0.408660E+00  0.142728E+01 -0.304648E+00
  0.164057E+02  0.396421E+00  0.142388E+01 -0.309603E+00
  0.165724E+02  0.384329E+00  0.141934E+01 -0.302708E+00
  0.167338E+02  0.372547E+00  0.141386E+01 -0.289914E+00
  0.168890E+02  0.361137E+00  0.140768E+01 -0.276308E+00
  0.170374E+02  0.350207E+00  0.140103E+01 -0.264964E+00
  0.171782E+02  0.339665E+00  0.139408E+01 -0.256467E+00
  0.173108E+02  0.329401E+00  0.138699E+01 -0.248869E+00
  0.174347E+02  0.319196E+00  0.137986E+01 -0.239158E+00
  0.175495E+02  0.309024E+00  0.137278E+01 -0.224986E+00
  0.176548E+02  0.298854E+00  0.136581E+01 -0.203984E+00
  0.177506E+02  0.288693E+00  0.135900E+01 -0.174641E+00
  0.178366E+02  0.278747E+00  0.135246E+01 -0.138173E+00
  0.179130E+02  0.269133E+00  0.134628E+01 -0.954253E-01
  0.179800E+02  0.259795E+00  0.134050E+01 -0.468650E-01
  0.180380E+02  0.250782E+00  0.133561E+01  0.246316E-02
  0.180876E+02  0.242589E+00  0.133186E+01  0.461492E-01
  0.181292E+02  0.235558E+00  0.132859E+01  0.822047E-01
  0.181638E+02  0.229771E+00  0.132584E+01  0.122870E+00
  0.181641E+02  0.239075E+00  0.166892E+01  0.132976E+00
  0.181309E+02  0.243227E+00  0.167057E+01  0.185150E+00
  0.180908E+02  0.248378E+00  0.167253E+01  0.227789E+00
  0.180432E+02  0.254231E+00  0.167478E+01  0.269035E+00
  0.179875E+02  0.259953E+00  0.167790E+01  0.299386E+00
  0.179230E+02  0.264506E+00  0.168166E+01  0.315547E+00
  0.178496E+02  0.267606E+00  0.168564E+01  0.321432E+00
  0.177669E+02  0.269265E+00  0.168982E+01  0.321723E+00
  0.176749E+02  0.269018E+00  0.169418E+01  0.316927E+00
  0.175736E+02  0.266298E+00  0.169865E+01  0.305817E+00
  0.174632E+02  0.260875E+00  0.170321E+01  0.288350E+00
  0.173440E+02  0.252685E+00  0.170787E+01  0.265426E+00
  0.172164E+02  0.241745E+00  0.171261E+01  0.237680E+00
  0.170810E+02  0.228129E+00  0.171746E+01  0.205354E+00
  0.169383E+02  0.212106E+00  0.172244E+01  0.169200E+00
  0.167891E+02  0.194054E+00  0.172755E+01  0.130151E+00
  0.166341E+02  0.174317E+00  0.173277E+01  0.889652E-01
  0.164742E+02  0.153284E+00  0.173807E+01  0.461224E-01
  0.163102E+02  0.131309E+00  0.174344E+01  0.238576E-02
  0.161430E+02  0.108848E+00  0.174878E+01 -0.403200E-01
  0.159734E+02  0.861116E-01  0.175361E+01 -0.790694E-01
  0.158024E+02  0.634188E-01  0.175817E+01 -0.112432E+00
  0.156307E+02  0.410379E-01  0.176246E+01 -0.141911E+00
  0.154594E+02  0.191176E-01  0.176649E+01 -0.169319E+00
  0.152892E+02 -0.209212E-02  0.177019E+01 -0.195299E+00
  0.151210E+02 -0.224142E-01  0.177370E+01 -0.220091E+00
  0.149554E+02 -0.416904E-01  0.177696E+01 -0.244162E+00
  0.147932E+02 -0.597822E-01  0.177998E+01 -0.267940E+00
  0.146350E+02 -0.765124E-01  0.178273E+01 -0.290945E+00
  0.144812E+02 -0.917117E-01  0.178519E+01 -0.312655E+00
  0.143324E+02 -0.105311E+00  0.178741E+01 -0.334004E+00
  0.141890E+02 -0.117280E+00  0.178930E+01 -0.356125E+00
  0.140511E+02 -0.127515E+00  0.179085E+01 -0.378715E+00
  0.139185E+02 -0.136183E+00  0.179075E+01 -0.395089E+00
  0.137918E+02 -0.143165E+00  0.179040E+01 -0.399961E+00
  0.136710E+02 -0.148522E+00  0.178966E+01 -0.397858E+00
  0.135564E+02 -0.152338E+00  0.178874E+01 -0.393772E+00
  0.134478E+02 -0.154694E+00  0.178760E+01 -0.388735E+00
  0.133451E+02 -0.155687E+00  0.178627E+01 -0.382427E+00
  0.132481E+02 -0.155442E+00  0.178477E+01 -0.375102E+00
  0.131567E+02 -0.154099E+00  0.178315E+01 -0.367365E+00
  0.130707E+02 -0.151770E+00  0.178141E+01 -0.359561E+00
  0.129897E+02 -0.148541E+00  0.177960E+01 -0.351768E+00
  0.129133E+02 -0.144514E+00  0.177754E+01 -0.342509E+00
  0.128403E+02 -0.139681E+00  0.177532E+01 -0.329835E+00
  0.127703E+02 -0.134048E+00  0.177305E+01 -0.314201E+00
  0.127036E+02 -0.127649E+00  0.177075E+01 -0.297055E+00
  0.126402E+02 -0.120484E+00  0.176849E+01 -0.278478E+00
  0.125799E+02 -0.112558E+00  0.176615E+01 -0.257139E+00
  0.125230E+02 -0.103861E+00  0.176380E+01 -0.232105E+00
  0.124695E+02 -0.944326E-01  0.176148E+01 -0.204556E+00
  0.124194E+02 -0.843316E-01  0.175916E+01 -0.180595E+00
  0.123727E+02 -0.735639E-01  0.175687E+01 -0.155534E+00
  0.123294E+02 -0.620138E-01  0.175460E+01 -0.120919E+00
  0.122897E+02 -0.495426E-01  0.175235E+01 -0.741723E-01
  0.122535E+02 -0.360122E-01  0.175009E+01 -0.932793E-02
  0.122208E+02 -0.213642E-01  0.174784E+01  0.746511E-01
  0.121916E+02 -0.569669E-02  0.174561E+01  0.173748E+00
  0.121661E+02  0.108729E-01  0.174342E+01  0.282690E+00
  0.121441E+02  0.282265E-01  0.174129E+01  0.395949E+00
  0.121259E+02  0.462531E-01  0.173930E+01  0.506429E+00
  0.121113E+02  0.648190E-01  0.173731E+01  0.604826E+00
  0.121004E+02  0.838130E-01  0.173543E+01  0.679204E+00
  0.120933E+02  0.103115E+00  0.173367E+01  0.717498E+00
  0.120898E+02  0.122603E+00  0.173201E+01  0.710780E+00
  0.120902E+02  0.142156E+00  0.173049E+01  0.655499E+00
  0.120943E+02  0.161642E+00  0.172909E+01  0.555825E+00
  0.121021E+02  0.180926E+00  0.172782E+01  0.422427E+00
  0.121138E+02  0.199882E+00  0.172678E+01  0.268947E+00
  0.121292E+02  0.218365E+00  0.172584E+01  0.108889E+00
  0.121484E+02  0.236251E+00  0.172512E+01 -0.466981E-01
  0.121714E+02  0.253406E+00  0.172466E+01 -0.189702E+00
  0.121983E+02  0.269695E+00  0.172446E+01 -0.313426E+00
  0.122289E+02  0.284983E+00  0.172452E+01 -0.409828E+00
  0.122633E+02  0.299154E+00  0.172483E+01 -0.471679E+00
  0.123014E+02  0.312266E+00  0.172531E+01 -0.501217E+00
  0.123432E+02  0.324467E+00  0.172594E+01 -0.510578E+00
  0.123885E+02  0.335904E+00  0.172665E+01 -0.502214E+00
  0.124373E+02  0.346709E+00  0.172738E+01 -0.490433E+00
  0.124896E+02  0.356913E+00  0.172808E+01 -0.484906E+00
  0.125453E+02  0.366519E+00  0.172878E+01 -0.474330E+00
  0.126042E+02  0.375525E+00  0.172927E+01 -0.457151E+00
  0.126664E+02  0.383985E+00  0.172960E+01 -0.434885E+00
  0.127317E+02  0.391961E+00  0.172973E+01 -0.410563E+00
  0.128002E+02  0.399517E+00  0.172963E+01 -0.388880E+00
  0.128718E+02  0.406714E+00  0.172929E+01 -0.377861E+00
  0.129470E+02  0.413651E+00  0.172909E+01 -0.379283E+00
  0.130280E+02  0.420498E+00  0.173034E+01 -0.381418E+00
  0.131141E+02  0.427213E+00  0.173170E+01 -0.378851E+00
  0.132058E+02  0.433880E+00  0.173316E+01 -0.376341E+00
  0.133033E+02  0.440522E+00  0.173473E+01 -0.374656E+00
  0.134067E+02  0.447046E+00  0.173638E+01 -0.372545E+00
  0.135162E+02  0.453486E+00  0.173809E+01 -0.370686E+00
  0.136319E+02  0.459844E+00  0.173981E+01 -0.369032E+00
  0.137539E+02  0.465913E+00  0.174150E+01 -0.366619E+00
  0.138820E+02  0.471691E+00  0.174310E+01 -0.369073E+00
  0.140162E+02  0.477012E+00  0.174455E+01 -0.386561E+00
  0.141566E+02  0.481671E+00  0.174651E+01 -0.416660E+00
  0.143027E+02  0.485494E+00  0.174845E+01 -0.448258E+00
  0.144541E+02  0.488257E+00  0.175023E+01 -0.476958E+00
  0.146105E+02  0.489759E+00  0.175182E+01 -0.501055E+00
  0.147713E+02  0.489746E+00  0.175319E+01 -0.518584E+00
  0.149360E+02  0.488174E+00  0.175427E+01 -0.527426E+00
  0.151040E+02  0.484822E+00  0.175504E+01 -0.524579E+00
  0.152745E+02  0.479767E+00  0.175541E+01 -0.508554E+00
  0.154467E+02  0.472975E+00  0.175533E+01 -0.479532E+00
  0.156199E+02  0.464655E+00  0.175464E+01 -0.439139E+00
  0.157931E+02  0.454959E+00  0.175326E+01 -0.391225E+00
  0.159656E+02  0.444216E+00  0.175110E+01 -0.344938E+00
  0.161364E+02  0.432732E+00  0.174815E+01 -0.315643E+00
  0.163052E+02  0.420840E+00  0.174671E+01 -0.302625E+00
  0.164704E+02  0.408814E+00  0.174434E+01 -0.291343E+00
  0.166312E+02  0.396868E+00  0.174087E+01 -0.277487E+00
  0.167868E+02  0.385187E+00  0.173664E+01 -0.262892E+00
  0.169364E+02  0.373809E+00  0.173179E+01 -0.249202E+00
  0.170794E+02  0.362857E+00  0.172651E+01 -0.237702E+00
  0.172151E+02  0.352269E+00  0.172099E+01 -0.228184E+00
  0.173429E+02  0.341966E+00  0.171535E+01 -0.219161E+00
  0.174623E+02  0.331885E+00  0.170975E+01 -0.209110E+00
  0.175729E+02  0.321948E+00  0.170424E+01 -0.196160E+00
  0.176743E+02  0.312096E+00  0.169888E+01 -0.178185E+00
  0.177664E+02  0.302339E+00  0.169363E+01 -0.154446E+00
  0.178492E+02  0.292862E+00  0.168871E+01 -0.126433E+00
  0.179227E+02  0.283797E+00  0.168412E+01 -0.940470E-01
  0.179872E+02  0.275031E+00  0.167990E+01 -0.538319E-01
  0.180430E+02  0.266618E+00  0.167645E+01 -0.597510E-02
  0.180907E+02  0.258985E+00  0.167399E+01  0.429179E-01
  0.181307E+02  0.252442E+00  0.167184E+01  0.854868E-01
  0.181640E+02  0.247057E+00  0.167003E+01  0.133304E+00
  0.181643E+02  0.260649E+00  0.214283E+01  0.137281E+00
  0.181329E+02  0.264276E+00  0.214379E+01  0.188618E+00
  0.180951E+02  0.268778E+00  0.214493E+01  0.230362E+00
  0.180501E+02  0.273897E+00  0.214624E+01  0.271039E+00
  0.179974E+02  0.278910E+00  0.214833E+01  0.301714E+00
  0.179366E+02  0.282910E+00  0.215108E+01  0.318945E+00
  0.178671E+02  0.285643E+00  0.215412E+01  0.326196E+00
  0.177890E+02  0.287106E+00  0.215745E+01  0.327962E+00
  0.177020E+02  0.286881E+00  0.216105E+01  0.324718E+00
  0.176062E+02  0.284454E+00  0.216491E+01  0.315241E+00
  0.175019E+02  0.279604E+00  0.216902E+01  0.299632E+00
  0.173892E+02  0.272252E+00  0.217338E+01  0.278751E+00
  0.172686E+02  0.262388E+00  0.217799E+01  0.253075E+00
  0.171406E+02  0.250062E+00  0.218286E+01  0.222885E+00
  0.170059E+02  0.235495E+00  0.218800E+01  0.188965E+00
  0.168649E+02  0.219012E+00  0.219339E+01  0.152362E+00
  0.167186E+02  0.200918E+00  0.219900E+01  0.113830E+00
  0.165676E+02  0.181570E+00  0.220478E+01  0.738912E-01
  0.164128E+02  0.161302E+00  0.221073E+01  0.334031E-01
  0.162551E+02  0.140541E+00  0.221675E+01 -0.647598E-02
  0.160951E+02  0.119517E+00  0.222239E+01 -0.448756E-01
  0.159338E+02  0.985390E-01  0.222787E+01 -0.809039E-01
  0.157721E+02  0.778857E-01  0.223309E+01 -0.114282E+00
  0.156107E+02  0.577286E-01  0.223821E+01 -0.145459E+00
  0.154505E+02  0.383233E-01  0.224315E+01 -0.174548E+00
  0.152922E+02  0.198326E-01  0.224789E+01 -0.201775E+00
  0.151365E+02  0.241598E-02  0.225244E+01 -0.227742E+00
  0.149840E+02 -0.138037E-01  0.225677E+01 -0.252794E+00
  0.148353E+02 -0.286753E-01  0.226084E+01 -0.276562E+00
  0.146909E+02 -0.420664E-01  0.226461E+01 -0.298613E+00
  0.145513E+02 -0.539325E-01  0.226808E+01 -0.319421E+00
  0.144166E+02 -0.642648E-01  0.227117E+01 -0.339331E+00
  0.142873E+02 -0.729970E-01  0.227384E+01 -0.357982E+00
  0.141628E+02 -0.802923E-01  0.227492E+01 -0.374316E+00
  0.140439E+02 -0.860679E-01  0.227562E+01 -0.386818E+00
  0.139307E+02 -0.903873E-01  0.227590E+01 -0.394950E+00
  0.138231E+02 -0.933466E-01  0.227581E+01 -0.399360E+00
  0.137212E+02 -0.950216E-01  0.227535E+01 -0.400676E+00
  0.136247E+02 -0.955001E-01  0.227458E+01 -0.399176E+00
  0.135336E+02 -0.948922E-01  0.227352E+01 -0.395595E+00
  0.134476E+02 -0.933269E-01  0.227221E+01 -0.390917E+00
  0.133667E+02 -0.909010E-01  0.227069E+01 -0.385527E+00
  0.132904E+02 -0.876890E-01  0.226898E+01 -0.379317E+00
  0.132184E+02 -0.837754E-01  0.226697E+01 -0.371827E+00
  0.131495E+02 -0.791428E-01  0.226471E+01 -0.362744E+00
  0.130836E+02 -0.737922E-01  0.226232E+01 -0.352353E+00
  0.130205E+02 -0.677529E-01  0.225981E+01 -0.340818E+00
  0.129604E+02 -0.610295E-01  0.225719E+01 -0.327411E+00
  0.129034E+02 -0.536074E-01  0.225448E+01 -0.310506E+00
  0.128494E+02 -0.454843E-01  0.225168E+01 -0.289073E+00
  0.127986E+02 -0.366937E-01  0.224884E+01 -0.264381E+00
  0.127509E+02 -0.272861E-01  0.224592E+01 -0.242701E+00
  0.127063E+02 -0.172659E-01  0.224297E+01 -0.219214E+00
  0.126650E+02 -0.653070E-02  0.223995E+01 -0.185310E+00
  0.126269E+02  0.504250E-02  0.223686E+01 -0.138457E+00
  0.125920E+02  0.175768E-01  0.223366E+01 -0.727855E-01
  0.125604E+02  0.311243E-01  0.223036E+01  0.126692E-01
  0.125321E+02  0.455970E-01  0.222698E+01  0.113904E+00
  0.125070E+02  0.608896E-01  0.222357E+01  0.225588E+00
  0.124854E+02  0.768961E-01  0.222014E+01  0.342004E+00
  0.124672E+02  0.935168E-01  0.221679E+01  0.455698E+00
  0.124524E+02  0.110630E+00  0.221343E+01  0.556633E+00
  0.124411E+02  0.128136E+00  0.221014E+01  0.631811E+00
  0.124333E+02  0.145925E+00  0.220695E+01  0.668059E+00
  0.124290E+02  0.163886E+00  0.220387E+01  0.655771E+00
  0.124283E+02  0.181909E+00  0.220095E+01  0.591582E+00
  0.124311E+02  0.199875E+00  0.219817E+01  0.480704E+00
  0.124376E+02  0.217666E+00  0.219557E+01  0.335302E+00
  0.124476E+02  0.235163E+00  0.219316E+01  0.170457E+00
  0.124613E+02  0.252246E+00  0.219101E+01  0.662290E-03
  0.124786E+02  0.268797E+00  0.218913E+01 -0.162552E+00
  0.124996E+02  0.284696E+00  0.218757E+01 -0.310950E+00
  0.125244E+02  0.299825E+00  0.218641E+01 -0.438010E+00
  0.125527E+02  0.314051E+00  0.218550E+01 -0.534785E+00
  0.125846E+02  0.327276E+00  0.218490E+01 -0.591361E+00
  0.126201E+02  0.339551E+00  0.218457E+01 -0.610837E+00
  0.126592E+02  0.351009E+00  0.218444E+01 -0.608462E+00
  0.127016E+02  0.361785E+00  0.218444E+01 -0.585814E+00
  0.127474E+02  0.371996E+00  0.218453E+01 -0.560332E+00
  0.127965E+02  0.381671E+00  0.218463E+01 -0.545034E+00
  0.128488E+02  0.390803E+00  0.218472E+01 -0.527318E+00
  0.129043E+02  0.399398E+00  0.218473E+01 -0.506243E+00
  0.129628E+02  0.407496E+00  0.218463E+01 -0.484216E+00
  0.130244E+02  0.415152E+00  0.218438E+01 -0.464020E+00
  0.130890E+02  0.422417E+00  0.218394E+01 -0.447396E+00
  0.131566E+02  0.429342E+00  0.218331E+01 -0.434698E+00
  0.132276E+02  0.436013E+00  0.218282E+01 -0.424643E+00
  0.133040E+02  0.442586E+00  0.218366E+01 -0.414993E+00
  0.133854E+02  0.449017E+00  0.218462E+01 -0.405634E+00
  0.134720E+02  0.455372E+00  0.218569E+01 -0.398642E+00
  0.135641E+02  0.461667E+00  0.218685E+01 -0.394133E+00
  0.136618E+02  0.467812E+00  0.218810E+01 -0.391029E+00
  0.137653E+02  0.473826E+00  0.218942E+01 -0.390532E+00
  0.138747E+02  0.479702E+00  0.219075E+01 -0.393633E+00
  0.139899E+02  0.485255E+00  0.219207E+01 -0.400492E+00
  0.141111E+02  0.490471E+00  0.219332E+01 -0.413327E+00
  0.142380E+02  0.495202E+00  0.219446E+01 -0.432493E+00
  0.143708E+02  0.499270E+00  0.219608E+01 -0.454512E+00
  0.145091E+02  0.502517E+00  0.219773E+01 -0.476165E+00
  0.146524E+02  0.504744E+00  0.219928E+01 -0.495668E+00
  0.148004E+02  0.505780E+00  0.220069E+01 -0.510728E+00
  0.149527E+02  0.505406E+00  0.220194E+01 -0.519020E+00
  0.151086E+02  0.503582E+00  0.220299E+01 -0.518563E+00
  0.152676E+02  0.500119E+00  0.220381E+01 -0.507503E+00
  0.154291E+02  0.495090E+00  0.220434E+01 -0.485993E+00
  0.155922E+02  0.488460E+00  0.220452E+01 -0.455833E+00
  0.157562E+02  0.480407E+00  0.220423E+01 -0.420137E+00
  0.159204E+02  0.471065E+00  0.220337E+01 -0.383402E+00
  0.160837E+02  0.460722E+00  0.220188E+01 -0.350681E+00
  0.162455E+02  0.449632E+00  0.219973E+01 -0.324569E+00
  0.164054E+02  0.438097E+00  0.219904E+01 -0.302706E+00
  0.165619E+02  0.426356E+00  0.219756E+01 -0.282347E+00
  0.167142E+02  0.414610E+00  0.219519E+01 -0.263268E+00
  0.168615E+02  0.403024E+00  0.219209E+01 -0.245736E+00
  0.170032E+02  0.391666E+00  0.218845E+01 -0.229956E+00
  0.171386E+02  0.380656E+00  0.218443E+01 -0.216286E+00
  0.172670E+02  0.369976E+00  0.218010E+01 -0.204312E+00
  0.173880E+02  0.359592E+00  0.217575E+01 -0.192879E+00
  0.175009E+02  0.349478E+00  0.217145E+01 -0.180817E+00
  0.176055E+02  0.339587E+00  0.216726E+01 -0.166619E+00
  0.177014E+02  0.329887E+00  0.216321E+01 -0.148541E+00
  0.177885E+02  0.320407E+00  0.215937E+01 -0.125984E+00
  0.178668E+02  0.311302E+00  0.215577E+01 -0.999356E-01
  0.179363E+02  0.302684E+00  0.215246E+01 -0.700162E-01
  0.179972E+02  0.294463E+00  0.214948E+01 -0.333262E-01
  0.180500E+02  0.286683E+00  0.214721E+01  0.100130E-01
  0.180949E+02  0.279679E+00  0.214575E+01  0.545339E-01
  0.181328E+02  0.273691E+00  0.214449E+01  0.935740E-01
  0.181642E+02  0.268757E+00  0.214342E+01  0.137431E+00
  0.181645E+02  0.286872E+00  0.271886E+01  0.147699E+00
  0.181354E+02  0.289876E+00  0.271935E+01  0.192240E+00
  0.181003E+02  0.293607E+00  0.271990E+01  0.229580E+00
  0.180585E+02  0.297853E+00  0.272055E+01  0.266737E+00
  0.180096E+02  0.302022E+00  0.272190E+01  0.295491E+00
  0.179531E+02  0.305368E+00  0.272389E+01  0.312412E+00
  0.178886E+02  0.307668E+00  0.272623E+01  0.320420E+00
  0.178160E+02  0.308908E+00  0.272888E+01  0.323516E+00
  0.177352E+02  0.308721E+00  0.273187E+01  0.322077E+00
  0.176462E+02  0.306662E+00  0.273521E+01  0.314928E+00
  0.175492E+02  0.302518E+00  0.273890E+01  0.302123E+00
  0.174445E+02  0.296191E+00  0.274294E+01  0.284359E+00
  0.173325E+02  0.287643E+00  0.274734E+01  0.261962E+00
  0.172136E+02  0.276886E+00  0.275208E+01  0.235152E+00
  0.170885E+02  0.264090E+00  0.275718E+01  0.204580E+00
  0.169576E+02  0.249509E+00  0.276260E+01  0.171126E+00
  0.168217E+02  0.233402E+00  0.276830E+01  0.135419E+00
  0.166815E+02  0.216082E+00  0.277424E+01  0.979296E-01
  0.165379E+02  0.197865E+00  0.278041E+01  0.594292E-01
  0.163915E+02  0.179140E+00  0.278669E+01  0.208973E-01
  0.162432E+02  0.160158E+00  0.279270E+01 -0.171546E-01
  0.160936E+02  0.141215E+00  0.279862E+01 -0.541714E-01
  0.159437E+02  0.122619E+00  0.280444E+01 -0.896678E-01
  0.157942E+02  0.104543E+00  0.281015E+01 -0.123533E+00
  0.156458E+02  0.872513E-01  0.281573E+01 -0.155379E+00
  0.154992E+02  0.709059E-01  0.282116E+01 -0.185084E+00
  0.153551E+02  0.556607E-01  0.282643E+01 -0.212959E+00
  0.152140E+02  0.416200E-01  0.283150E+01 -0.239189E+00
  0.150765E+02  0.289050E-01  0.283634E+01 -0.263499E+00
  0.149430E+02  0.176053E-01  0.284085E+01 -0.285571E+00
  0.148139E+02  0.773769E-02  0.284504E+01 -0.305809E+00
  0.146895E+02 -0.712208E-03  0.284882E+01 -0.324482E+00
  0.145700E+02 -0.772100E-02  0.285213E+01 -0.341228E+00
  0.144550E+02 -0.134527E-01  0.285393E+01 -0.355751E+00
  0.143452E+02 -0.178577E-01  0.285529E+01 -0.368044E+00
  0.142406E+02 -0.210132E-01  0.285615E+01 -0.378084E+00
  0.141411E+02 -0.230076E-01  0.285656E+01 -0.385776E+00
  0.140469E+02 -0.239178E-01  0.285654E+01 -0.390923E+00
  0.139577E+02 -0.238212E-01  0.285612E+01 -0.393262E+00
  0.138734E+02 -0.228107E-01  0.285535E+01 -0.393216E+00
  0.137939E+02 -0.210000E-01  0.285426E+01 -0.391753E+00
  0.137189E+02 -0.184712E-01  0.285289E+01 -0.389302E+00
  0.136482E+02 -0.152836E-01  0.285128E+01 -0.385715E+00
  0.135815E+02 -0.115027E-01  0.284933E+01 -0.380529E+00
  0.135176E+02 -0.710068E-02  0.284709E+01 -0.373587E+00
  0.134564E+02 -0.207225E-02  0.284467E+01 -0.365381E+00
  0.133978E+02  0.355938E-02  0.284208E+01 -0.356099E+00
  0.133419E+02  0.979338E-02  0.283934E+01 -0.344926E+00
  0.132889E+02  0.166456E-01  0.283645E+01 -0.330113E+00
  0.132386E+02  0.241209E-01  0.283342E+01 -0.310499E+00
  0.131912E+02  0.321925E-01  0.283029E+01 -0.287309E+00
  0.131466E+02  0.408181E-01  0.282705E+01 -0.266583E+00
  0.131050E+02  0.499949E-01  0.282372E+01 -0.243382E+00
  0.130663E+02  0.598101E-01  0.282029E+01 -0.209303E+00
  0.130305E+02  0.703687E-01  0.281671E+01 -0.162074E+00
  0.129977E+02  0.817759E-01  0.281297E+01 -0.961192E-01
  0.129678E+02  0.940760E-01  0.280906E+01 -0.104518E-01
  0.129409E+02  0.107192E+00  0.280502E+01  0.911934E-01
  0.129170E+02  0.121030E+00  0.280089E+01  0.203702E+00
  0.128963E+02  0.135498E+00  0.279671E+01  0.321432E+00
  0.128787E+02  0.150503E+00  0.279251E+01  0.436880E+00
  0.128643E+02  0.165948E+00  0.278834E+01  0.539665E+00
  0.128531E+02  0.181739E+00  0.278423E+01  0.615948E+00
  0.128451E+02  0.197779E+00  0.278022E+01  0.651460E+00
  0.128404E+02  0.213968E+00  0.277631E+01  0.635812E+00
  0.128391E+02  0.230215E+00  0.277263E+01  0.565714E+00
  0.128411E+02  0.246405E+00  0.276904E+01  0.447367E+00
  0.128464E+02  0.262444E+00  0.276564E+01  0.294373E+00
  0.128551E+02  0.278228E+00  0.276246E+01  0.123126E+00
  0.128672E+02  0.293657E+00  0.275956E+01 -0.510923E-01
  0.128828E+02  0.308626E+00  0.275698E+01 -0.216729E+00
  0.129018E+02  0.323033E+00  0.275474E+01 -0.366181E+00
  0.129242E+02  0.336771E+00  0.275286E+01 -0.493866E+00
  0.129501E+02  0.349733E+00  0.275136E+01 -0.589610E+00
  0.129794E+02  0.361830E+00  0.275021E+01 -0.644263E+00
  0.130121E+02  0.373105E+00  0.274936E+01 -0.662748E+00
  0.130480E+02  0.383676E+00  0.274874E+01 -0.658961E+00
  0.130872E+02  0.393661E+00  0.274830E+01 -0.633932E+00
  0.131295E+02  0.403163E+00  0.274796E+01 -0.606086E+00
  0.131749E+02  0.412203E+00  0.274768E+01 -0.590064E+00
  0.132233E+02  0.420774E+00  0.274740E+01 -0.572933E+00
  0.132747E+02  0.428875E+00  0.274709E+01 -0.552565E+00
  0.133290E+02  0.436539E+00  0.274671E+01 -0.531211E+00
  0.133861E+02  0.443809E+00  0.274621E+01 -0.511158E+00
  0.134461E+02  0.450725E+00  0.274556E+01 -0.493412E+00
  0.135088E+02  0.457324E+00  0.274475E+01 -0.478331E+00
  0.135747E+02  0.463675E+00  0.274408E+01 -0.465733E+00
  0.136456E+02  0.469919E+00  0.274463E+01 -0.454469E+00
  0.137211E+02  0.476007E+00  0.274529E+01 -0.444580E+00
  0.138016E+02  0.481986E+00  0.274606E+01 -0.438006E+00
  0.138871E+02  0.487864E+00  0.274699E+01 -0.434813E+00
  0.139779E+02  0.493547E+00  0.274793E+01 -0.433868E+00
  0.140740E+02  0.499042E+00  0.274893E+01 -0.436209E+00
  0.141756E+02  0.504328E+00  0.274995E+01 -0.442452E+00
  0.142828E+02  0.509248E+00  0.275098E+01 -0.451728E+00
  0.143954E+02  0.513774E+00  0.275196E+01 -0.464274E+00
  0.145133E+02  0.517778E+00  0.275285E+01 -0.479339E+00
  0.146368E+02  0.521117E+00  0.275420E+01 -0.494747E+00
  0.147653E+02  0.523655E+00  0.275560E+01 -0.508898E+00
  0.148986E+02  0.525219E+00  0.275694E+01 -0.520239E+00
  0.150363E+02  0.525679E+00  0.275818E+01 -0.526501E+00
  0.151779E+02  0.524857E+00  0.275932E+01 -0.525862E+00
  0.153229E+02  0.522720E+00  0.276032E+01 -0.517341E+00
  0.154708E+02  0.519118E+00  0.276116E+01 -0.500687E+00
  0.156210E+02  0.514116E+00  0.276180E+01 -0.477329E+00
  0.157728E+02  0.507682E+00  0.276209E+01 -0.449293E+00
  0.159254E+02  0.499952E+00  0.276208E+01 -0.418787E+00
  0.160781E+02  0.491041E+00  0.276161E+01 -0.388261E+00
  0.162302E+02  0.481182E+00  0.276063E+01 -0.359418E+00
  0.163807E+02  0.470567E+00  0.275911E+01 -0.332366E+00
  0.165295E+02  0.459459E+00  0.275897E+01 -0.306494E+00
  0.166750E+02  0.448053E+00  0.275815E+01 -0.282137E+00
  0.168167E+02  0.436532E+00  0.275655E+01 -0.259717E+00
  0.169538E+02  0.425042E+00  0.275430E+01 -0.239042E+00
  0.170856E+02  0.413686E+00  0.275158E+01 -0.219984E+00
  0.172115E+02  0.402583E+00  0.274850E+01 -0.202580E+00
  0.173309E+02  0.391771E+00  0.274524E+01 -0.186414E+00
  0.174433E+02  0.381266E+00  0.274191E+01 -0.170705E+00
  0.175483E+02  0.371090E+00  0.273862E+01 -0.154608E+00
  0.176455E+02  0.361233E+00  0.273544E+01 -0.136911E+00
  0.177347E+02  0.351697E+00  0.273242E+01 -0.116326E+00
  0.178156E+02  0.342528E+00  0.272959E+01 -0.925393E-01
  0.178883E+02  0.333850E+00  0.272690E+01 -0.662484E-01
  0.179529E+02  0.325754E+00  0.272455E+01 -0.371765E-01
  0.180095E+02  0.318175E+00  0.272248E+01 -0.337007E-02
  0.180584E+02  0.311140E+00  0.272104E+01  0.349898E-01
  0.181002E+02  0.304882E+00  0.272030E+01  0.739601E-01
  0.181353E+02  0.299548E+00  0.271966E+01  0.108417E+00
  0.181644E+02  0.295147E+00  0.271911E+01  0.147847E+00
  0.181647E+02  0.316757E+00  0.337534E+01  0.160066E+00
  0.181382E+02  0.319062E+00  0.337550E+01  0.194508E+00
  0.181062E+02  0.321925E+00  0.337566E+01  0.225076E+00
  0.180681E+02  0.325188E+00  0.337586E+01  0.256527E+00
  0.180235E+02  0.328409E+00  0.337669E+01  0.281711E+00
  0.179719E+02  0.331018E+00  0.337814E+01  0.297321E+00
  0.179131E+02  0.332836E+00  0.337994E+01  0.305559E+00
  0.178468E+02  0.333829E+00  0.338208E+01  0.309721E+00
  0.177731E+02  0.333694E+00  0.338458E+01  0.310034E+00